Generated by runner2lammps.sh, original comment line: 

192 atoms
2 atom types

0.0 12.800003 xlo xhi
0.0 12.800003 ylo yhi
0.0 12.800003 zlo zhi

Masses

1 1.0079
2 15.9994

Atoms

    1   2   8.9610935325898016E+00   1.2104967772290957E+01   9.8861238968627008E-01
    2   2   3.8988105372090809E+00   8.0626771787425717E+00   8.2200332404695704E+00
    3   2   9.0567285703146716E+00   9.3898337018330178E+00   1.1076524366515349E+01
    4   2   7.6393540113719132E+00   1.1323697464189516E+01   8.4821473438852220E+00
    5   2   1.1290810451134393E+01   6.2792524768751035E-01   1.0263304064733850E-01
    6   2   1.0905617299404273E+01   6.1088164081719736E+00   6.0343493790308296E+00
    7   2   2.2276208795200739E-01   6.2508714643732901E+00   1.1032483349377756E+01
    8   2   7.2020108394407307E+00   1.3688105398464976E+00   1.0777530248694255E+01
    9   2   5.0134109766278447E+00   9.8298798749617511E+00   1.0866221283914086E+01
   10   2   6.2209664522029469E+00   1.1252089436099489E+01   1.3517205354064640E-01
   11   2   3.6158254253888602E+00   3.3292873124837414E+00   4.6856278469728574E+00
   12   2   1.1128904387240011E+00   2.4557639683607833E+00   1.0260855045312637E+01
   13   2  -2.2025608672897132E-01   8.4692863390135855E+00   5.6986612467721756E+00
   14   2   3.9677975643434498E+00   7.5753029772569022E-02   1.2311207853451569E+01
   15   2   1.0224375030667415E+01   1.1464504519445581E+01   5.5624521927022004E+00
   16   2   6.1145834104961958E+00   2.4055999481069374E+00   4.0158815810815601E-01
   17   2   1.0469424127445192E+01   5.1407730265156699E+00   1.0378634091247836E+01
   18   2   5.4141671342822262E+00   1.0099556981688801E+01   2.5468080037973237E+00
   19   2   7.4239459266052288E+00   5.3467961079783457E+00   1.0874072286629501E+01
   20   2   3.5581434025242613E+00   1.0244333038521241E+01   6.6082106053627054E+00
   21   2   1.3452245300928203E+00   1.2572072956306224E+01   7.0716397879302333E+00
   22   2   6.8098926858424247E-01   8.1981382318321572E+00   1.4125705570070120E+00
   23   2   6.1236954139241666E+00   2.1324788407455970E+00   7.5762429864831962E+00
   24   2   4.3684957220590581E+00   4.0985496155064904E+00   1.0041997958657863E+01
   25   2   2.6155970313414318E+00   7.8431550920234026E+00   5.3803901208345550E+00
   26   2   1.1775023642198329E+01   8.7656514557779825E+00   1.1680410604945633E+01
   27   2   1.2296306847686104E+01   1.0119938989605965E+01   3.2682532885592774E+00
   28   2   3.3472583197162451E+00   8.2409912487822972E+00   2.6768600551153918E+00
   29   2   6.4088315263203155E+00   6.6421146186945572E+00   2.8052121061295856E+00
   30   2   9.8961129014450915E+00   2.6363150392688501E+00   6.4701705505249762E+00
   31   2   1.3673755387884439E+00   1.4802225832879705E+00   1.4884385870413797E+00
   32   2   1.2994135120318435E+00   6.6184356092215291E+00   8.3011232726918323E+00
   33   2   5.2898240853496068E+00   6.1860334384428066E+00   5.6788262387520119E+00
   34   2   6.3382974988300429E+00   7.5491939759875519E+00   9.2362796412930113E+00
   35   2   9.8914058992792153E+00   7.1692838262896954E+00   8.6271533991245519E-01
   36   2   1.0939629312512631E+01   1.1203030416704634E+01   9.9466579213514787E+00
   37   2   1.2053866751712427E+01   3.1060012337889416E-02   2.9871441776782763E+00
   38   2   1.1003227337598906E+01   4.4979647730254468E+00   1.2923535096492593E+00
   39   2   8.2432082499272159E+00   1.6930796671893298E+00   2.7854800982196610E+00
   40   2   1.0306007063120409E+01   7.2923668746546806E+00   8.7027884308464358E+00
   41   2   3.2082302645711738E+00   1.2357894871992862E+01   2.6092430286150110E+00
   42   2   3.6168914274751074E-01   4.3717717232173996E+00   4.4212927428909437E+00
   43   2   2.3253519167293404E+00   9.4482987249294048E+00   1.0329534072261213E+01
   44   2   4.8969519304305456E+00   1.1564232558725410E+01   8.6319104027156914E+00
   45   2   3.9853845709594600E+00   5.2529680707181088E+00   2.4430879633121005E+00
   46   2   3.2810182932767904E+00   6.6331726150323842E+00   1.1293301452300273E+01
   47   2   7.5341149703552501E+00   4.3530467162516704E+00   6.6978586406306437E+00
   48   2   7.2784108693149419E+00   1.0517546146515363E+01   4.6361508278550314E+00
   49   2   3.7479414773746980E+00   1.0836344269451499E+00   9.4008487058797474E+00
   50   2   1.1019317344225923E+01   2.4286079571752031E+00   3.3717893293664707E+00
   51   2   3.8136775032695924E+00   4.2829906887129905E+00   7.3309168897788624E+00
   52   2   6.9711687483946365E+00   7.6930450326468671E+00   8.4790033443940385E-02
   53   2   1.0077749973104471E+01   2.7755660944522260E+00   1.1994650728788407E+01
   54   2   1.9090347523821911E+00   3.5243653894608435E+00   1.2609075970545323E+01
   55   2   1.9975107897814659E-01   9.9753839325219786E+00   8.0935731905966755E+00
   56   2   7.9882331508179760E-01   5.3183870967104241E+00   1.8650777352471628E+00
   57   2   3.6339644326264917E+00   6.5341925772621201E-01   5.4293211402003054E+00
   58   2   6.4289365343109210E+00   4.8846519237806080E-01   4.8721789206343393E+00
   59   2   9.3030006675896555E+00   9.7105938281174922E+00   2.6057300269769565E+00
   60   2   8.3766783023449616E+00   6.9499447396328096E+00   4.7925848893145009E+00
   61   2   4.9912319654618731E-01   1.2074706760386936E+01   1.1411682498694828E+01
   62   2   8.2157792388655988E+00   9.0118365526156285E+00   7.3229318866939748E+00
   63   2   1.0503194143053456E+00   3.8170455045315372E+00   7.5197169644602440E+00
   64   2   1.0077357972916117E+01   3.1485412392451229E-01   8.0424121703187001E+00
   65   1   3.8075565009723649E+00   8.7628544547161571E+00   7.5366709708868420E+00
   66   1   9.2233926358284091E+00   1.1227852426193648E+01   1.2587144960924055E+00
   67   1   8.5354013648003537E+00   8.9343935224008959E+00   1.0387816095295317E+01
   68   1   6.7181086484681822E+00   1.1733275625578004E+01   8.6226993992280025E+00
   69   1   1.2058764754041624E+01   2.8312711176155697E-01   1.2463479913410669E+01
   70   1   9.2346056405237515E+00   1.0252351041626033E+01   1.0637038193580098E+01
   71   1   8.3237682815411258E+00   1.1847516670485460E+01   8.0090141572920803E+00
   72   1   1.1159508399110402E+01   1.4950555892529502E+00   1.2404591890395865E+01
   73   1   7.0093347634315011E+00   1.4986305908802970E+00   9.8410908793672451E+00
   74   1   2.9764411733386837E+00   7.7703270633417647E+00   8.2849182663321930E+00
   75   1   1.0805323259590590E+01   6.4505815432304914E+00   6.9939727570030943E+00
   76   1   9.7486298433645793E+00   1.2557943950765912E+01   6.3756325114413481E-01
   77   1   3.5748994093605977E+00   3.8315515107322256E+00   5.5172301748040944E+00
   78   1   4.7847818861469726E-01   1.7162096764755093E+00   1.0191534017928683E+01
   79   1   1.1515851539691434E+01   5.3744871189093653E+00   5.9927453626416884E+00
   80   1   1.0975182326694878E+01   1.1029168347859141E+01   5.1750100399521815E+00
   81   1   1.2142264787332797E+00   6.1468284231159416E+00   1.1269620442537397E+01
   82   1   7.1189518065598998E+00   1.1479784525632095E+01   3.5012813789035230E-01
   83   1   5.5481931873721129E+00   1.0347847079315164E+01   1.1628785584099122E+01
   84   1   7.4663249436542971E+00   4.4054217357225339E-01   1.0711005222756382E+01
   85   1   6.6087826078244571E-01   8.1194322006150195E+00   5.6961782457073351E+00
   86   1   1.2655704990735377E+00   2.7602590880569977E+00   1.1203007416546438E+01
   87   1   5.3893001246217453E+00   1.7025566711261195E+00   3.6913014531181632E-01
   88   1   8.9060985112498496E+00   8.4486343305968035E+00   7.7485640547839782E+00
   89   1   5.4562371510005763E+00   5.1755220400686042E-01   4.7317888654854974E+00
   90   1   3.5545824013383225E+00   1.6923646672872021E+00   5.2509520701274015E+00
   91   1   8.9462435252194628E-01   3.2147932674236683E+00   8.2320722452783208E+00
   92   1   1.2555374949937836E+00   1.1464958519623231E+01   1.1246742433788086E+01
   93   1   9.2476806457169065E+00   8.8417384858001338E+00   2.1557288499598419E+00
   94   1   3.3298263128088785E+00   1.2651643987467866E+01   1.4845005851950627E-01
   95   1  -3.5946013986350084E-02   7.1599148226585889E+00   1.1369162481849349E+01
   96   1   5.6142722132333791E+00   9.1000755874184804E+00   1.0641617195187690E+01
   97   1   5.9713163538043075E+00   1.0727743229100788E+01   9.6414338002533739E-01
   98   1   1.1390758490546933E+01   5.3188660968069401E+00   1.0707791221058155E+01
   99   1   9.7962728618090562E+00   1.1857655674581050E+01   4.8486369114363805E+00
  100   1   5.9424863429078210E+00   9.7559018457788333E+00   3.3132593063751941E+00
  101   1   3.8075135010907473E+00   3.9318855499927534E+00   3.9775115682307756E+00
  102   1   7.1257948092445478E+00   6.1443714221148920E+00   1.0360257084443923E+01
  103   1   4.7420738695729430E+00   1.2278134840428567E+01   1.2572801956649759E+01
  104   1   2.9293011547646652E+00   1.0977038327381498E+01   6.3311714958784693E+00
  105   1   1.1972571719943788E+01   7.6740910253024648E+00   5.7636132722903568E+00
  106   1   6.2968764825031851E+00   2.4579189689872316E+00   1.2255704831516537E+01
  107   1   3.5540614025634676E-01   8.5936803879288632E+00   5.7905122811560927E-01
  108   1   1.1431914506040437E+00   1.1743598629351622E+01   7.5250369665629320E+00
  109   1   5.3392301047613522E+00   4.2956716934279395E+00   1.0266916047381242E+01
  110   1   5.7518122659895354E-01  -6.4273025541555923E-02   6.4411875391513407E+00
  111   1   4.5876018082867507E+00   9.5967627833611431E+00   2.5811660173068249E+00
  112   1   6.0362553795551825E+00   1.7993417093522681E+00   6.6711646297237532E+00
  113   1   1.0558486162455857E+01   4.1458026345816368E+00   1.0579558170885459E+01
  114   1   1.1016844343022793E+01   8.3760163021861640E+00   1.2234348823204263E+01
  115   1   3.9678455644205117E+00   3.6823454516604688E+00   1.0866297283815610E+01
  116   1   8.3849643056595262E+00   5.3595321127264715E+00   1.0693942215879176E+01
  117   1   2.7991111035557803E+00   8.6896654255762176E+00   5.7492372664086231E+00
  118   1   3.2376462762541132E+00   7.7822780680974315E+00   4.6353988273533009E+00
  119   1   4.2441286733524963E+00   1.0655085200714128E+01   7.2310458504127704E+00
  120   1   6.5762845924062097E+00   7.2339688517430307E+00   2.0524678093185353E+00
  121   1   3.5952174175277967E+00   7.3602859015296636E+00   2.2934369043086580E+00
  122   1   2.6713110552799169E-01   8.7552564516241826E+00   2.1089488311700211E+00
  123   1   7.2863748725314830E+00   6.5588845859030025E+00   3.3471463193600419E+00
  124   1   5.2622770746497709E+00   1.8914647455840079E+00   7.8828031075212817E+00
  125   1   1.1370647482745136E+01   9.3082536695076055E+00   1.0957979319637008E+01
  126   1  -2.3958409429897914E-01   9.6663358107527877E+00   4.0985936155330318E+00
  127   1   1.1383226487494770E+01   9.8106998676734474E+00   3.0630242073350264E+00
  128   1   9.3018176670684678E+00   3.4407443566258578E+00   6.4531535439641630E+00
  129   1   4.5859918056799220E-01   1.0950394319487404E+00   1.4942355889507348E+00
  130   1   5.5453331861760713E+00   6.4340915363140772E+00   4.7445818705566500E+00
  131   1   9.8363558779060867E+00   2.2657888932592551E+00   5.5537511895702618E+00
  132   1   1.2427984899167196E+01   1.1957321713871586E+01   3.2166332679082088E+00
  133   1   5.4356871430782858E+00   7.5429339736545842E+00   8.8818165011725423E+00
  134   1   1.0132647994674553E+01   6.3213064918038429E+00   1.2458214913457868E+00
  135   1   2.5206329934921476E+00   8.5094423545773683E+00   2.2648318926819702E+00
  136   1   1.0417714106980370E+01   1.1815875658085739E+01   9.4415437222978404E+00
  137   1   7.1988928363090976E-01   6.2441994615993650E+00   9.0504615680255860E+00
  138   1   1.9144047548517888E+00   9.6040737887815575E-01   2.1901298633509612E+00
  139   1   5.0355359852596786E+00   7.0043547613895871E+00   6.0746743947446618E+00
  140   1   1.1560707557464974E+01   1.0855591279570424E+01   9.1602986112866951E+00
  141   1   1.2454764910895677E+00   5.9491453453852614E+00   7.6320020084764382E+00
  142   1   1.1941717707826378E+01   4.7372668677316012E+00   1.3585615356845544E+00
  143   1   1.1064315361940800E+01   7.7093810394703839E+00   9.1140295929975483E+00
  144   1   3.4200943484989232E+00   1.2267176836175688E+01   3.5669634059685191E+00
  145   1   6.7959666790294664E+00   8.0334171669131997E+00   8.5240393602075564E+00
  146   1  -9.4276037097517015E-02   3.6398734348920501E+00   3.9925915740080020E+00
  147   1   9.1328786004710398E+00   6.8889677160313711E+00   4.0151315835155638E-01
  148   1   1.1503203534996391E+01   1.2520218935610213E+01   2.2129398722997879E+00
  149   1   1.0951208317332542E+01   3.9117165422521838E+00   2.0396908039202852E+00
  150   1   8.5861033847052362E+00   9.3778136960735881E-01   2.2641298925471496E+00
  151   1   3.2695322887054092E+00   9.5034427466959865E+00   1.0192062017718008E+01
  152   1   4.5437727911808281E+00   1.2485230921816896E+01   8.9230055177443095E+00
  153   1   1.0173285010624697E+01   6.4911655589081301E+00   9.2256476371886773E+00
  154   1   7.4217929257394522E+00   1.9579327717280341E+00   2.3226359157644838E+00
  155   1   4.0702836048540076E+00   1.2079513762228277E+01   2.2945829047594173E+00
  156   1   1.0588044173550955E+00   3.9468685560001093E+00   4.9910229674525075E+00
  157   1   6.8164086871752509E+00   4.9925949682564541E+00   6.3888265185343531E+00
  158   1   7.4981409560152601E+00   9.9455529210216653E+00   5.3907131251373510E+00
  159   1   2.0835178212655365E+00   8.6245663999212567E+00   1.0813964263023086E+01
  160   1   1.0161714005905829E+01   2.1392858435047430E+00   3.0105151869655118E+00
  161   1   4.1100766201988179E+00   5.0493749905769461E+00   6.8708867087325132E+00
  162   1   4.8287409035718492E+00   5.7967902850393438E+00   2.5380540003928789E+00
  163   1   3.3037833025833283E+00   6.0992044042499627E+00   1.0498705138613733E+01
  164   1   3.2697512892223708E+00   1.9219707575396046E+00   9.3396316818929979E+00
  165   1   4.7803208847067751E+00   1.0969777324444703E+01   9.4249017155783790E+00
  166   1   1.0554188160825342E+01   3.4482153593044735E+00   1.2510744932108198E+01
  167   1   6.8761867105826004E+00   6.9727317489526186E+00   1.2246865827964603E+01
  168   1   7.7525480564175080E+00   8.2329162453544775E+00   1.2555077949758680E+01
  169   1   7.0950277970352955E+00   3.8950595354755664E+00   7.3998489174092308E+00
  170   1   1.6180636378613362E+00   4.2909246918152197E+00   3.3316813112338656E-01
  171   1   4.2864826899535204E+00   4.6756728430844756E+00   1.7261316803439841E+00
  172   1   7.2087828408317667E-01   9.5859477791945249E+00   8.8027474702656097E+00
  173   1   1.7480936891661338E+00   2.6852110583248452E+00   2.8505311253850935E-01
  174   1   3.3902263363990062E+00   6.0084003686695544E+00   1.2021558738958463E+01
  175   1   7.0700887869946341E+00   1.1363916479887514E+01   5.0697999983757267E+00
  176   1   4.1094196202354638E+00   4.3258487053293964E+00   8.2742122620870049E+00
  177   1   3.5370873942967394E+00   8.0650331788648766E-01   1.0338488075545769E+01
  178   1   1.1547187552340134E+01   1.6524756512590906E+00   3.2965682994337460E+00
  179   1   9.1070225903582926E+00   2.8855691374286132E+00   1.2125781780372499E+01
  180   1   2.8228711120674221E-01   9.2870826610182853E+00   7.3650119032740369E+00
  181   1   8.1449662111589198E+00   9.8060628655979052E+00   7.9206571223218329E+00
  182   1   1.2499080927669976E+01   1.1548575552936875E+01   1.1016093342665988E+01
  183   1   1.9877177834411348E+00   3.7530054794191745E+00   7.3179578849924303E+00
  184   1   8.0072531555563053E-01   6.2829074768669635E+00   1.9316917613830455E+00
  185   1   8.8902735049270076E-01   5.0417049876339668E+00   2.8120171085988832E+00
  186   1   1.0445366117551115E+01   1.2654766988678235E+01   7.2192868459653514E+00
  187   1   2.7681260915036674E+00   4.9844619633023307E-01   5.8788313174985216E+00
  188   1   8.2794782637722619E+00   7.5911879928043788E+00   5.5133141735002260E+00
  189   1   6.8563857027272688E+00   9.5022437475602539E-01   4.1156086223331751E+00
  190   1   9.9993869418537020E+00   1.2637574982685353E+00   7.7455290536266919E+00
  191   1   8.5206143591517645E+00   9.8124398684825227E+00   3.1672842488194890E+00
  192   1   9.1714606154702043E+00   6.4744315526142424E+00   5.1375830251205645E+00

