Generated by runner2lammps.sh, original comment line: 

192 atoms
3 atom types

0.0 12.675011 xlo xhi
0.0 12.675011 ylo yhi
0.0 12.675011 zlo zhi

Masses

1 1.0079
2 15.9994
3 22.9897

Atoms

    1   2   9.4591537290720460E+00   1.3088105160165895E+00   5.5795222000646982E-01
    2   1   8.6489934098454953E+00   1.7458106879814026E+00   8.1037431954806771E-01
    3   1   9.6155037905289511E+00   4.5484017926261533E-01   1.0613504185541534E+00
    4   2   5.8099522906698358E+00   3.6202914270245024E+00   9.4836037386253036E+00
    5   1   4.8380019074264498E+00   3.4724813691797012E+00   9.4379437207516279E+00
    6   1   6.1505924246167627E+00   2.7165210709097547E+00   9.6355837986006900E+00
    7   2   8.5441033680772183E+00   6.2842424771911958E+00   8.7586434529938018E+00
    8   1   7.6795430274847778E+00   5.8738223154872227E+00   8.9614735326265986E+00
    9   1   9.1840636205229593E+00   5.7111522514687270E+00   9.2726736556458196E+00
   10   2   1.7860207039626135E+00   7.1339228124156957E+00   7.9694531417023606E+00
   11   1   1.8178107167889630E+00   7.4459829351839790E+00   7.0430227766811626E+00
   12   1   2.5263109961475392E+00   7.6391930113229014E+00   8.3678132987292386E+00
   13   2   5.5987822073050442E+00   1.0326604070974838E+01   9.7238038332958681E+00
   14   1   6.4880425576977609E+00   1.0599804178672475E+01   9.9414239190120259E+00
   15   1   5.4099421326476405E+00   1.1112604380871172E+01   9.1246035971631123E+00
   16   2   9.7479038418682851E-01   5.2371820647555412E+00   4.5639917992883072E+00
   17   1   2.7815210991508837E-01   5.9086023292993906E+00   4.7576218754400488E+00
   18   1   1.7610106942158721E+00   5.8067522894130184E+00   4.3900417309189086E+00
   19   2   5.8400423021339565E+00   4.3949617120942891E-02   1.2347604867709974E+01
   20   1   4.8229219011200453E+00   1.2561304952071742E+01   1.2157604792689577E+01
   21   1   6.2526324650507101E+00   3.6183014254392315E-01   1.1532804546502284E+01
   22   2   6.1910124408689713E+00   5.7428322636995439E+00   7.2045728403126903E+00
   23   1   5.4467221473776135E+00   5.2579920727865632E+00   7.5756529867045792E+00
   24   1   6.2107724486033575E+00   5.4510321491596878E+00   6.2725624725508959E+00
   25   2   7.2818328704651396E+00   1.2793905042831306E+00   9.9203239107579613E+00
   26   1   7.0011027600051889E+00   5.2541820730860611E-01   9.3516836864690553E+00
   27   1   8.1701232210424433E+00   1.5010805919252315E+00   9.6054037867936373E+00
   28   2   3.3820313330431211E+00   1.2372304877510249E+01   1.1792104648509108E+01
   29   1   2.9127511481488066E+00   9.6011037711146663E-02   1.0361804084799825E+01
   30   1   3.0810212146313214E+00   4.4383017488215409E-01   1.2344004866163758E+01
   31   2   4.8098618959840458E+00   6.8203126888567374E+00   1.2448904907793748E+01
   32   1   4.5753518035912553E+00   7.3178228850072093E+00   1.1613004578331998E+01
   33   1   5.5684421950647263E+00   7.3542628991472307E+00   1.5557106127563641E-01
   34   2   4.3296817067756264E+00   1.0561504163795314E+01   6.0547623866780498E+00
   35   1   4.4011617348365473E+00   9.7717738520338138E+00   6.6324426145439244E+00
   36   1   3.3943713380815486E+00   1.0828004268894565E+01   6.1476824235829879E+00
   37   2   1.8551807312975543E+00   8.0898131891463745E+00   5.4722621572035282E+00
   38   1   2.4127109510013569E+00   8.4663133378455946E+00   4.8025518933544422E+00
   39   1   1.0962004319274776E+00   8.7212734379560342E+00   5.4704921568093212E+00
   40   2   1.2471504916471579E+01   9.9359139168909412E+00   4.5570817964189230E+00
   41   1   1.2350504868882036E+01   1.0864604282938675E+01   4.7948218901828419E+00
   42   1   1.1629404584376301E+01   9.4829637384797749E+00   4.5870718082075772E+00
   43   2   4.2653616813019326E+00   7.2568528608327094E+00   3.7199114665278268E+00
   44   1   4.8932019288419548E+00   7.9625431388329755E+00   3.9314115500916813E+00
   45   1   4.5853918076271247E+00   6.4533225441142141E+00   4.1913416523823219E+00
   46   2   1.8263907198479121E+00   7.8347230887169816E+00   1.6249906405485484E+00
   47   1   2.4317009588004379E+00   7.3487428971644331E+00   2.2147808729292522E+00
   48   1   1.2113604777260463E+00   7.1488528181505462E+00   1.2692105005957730E+00
   49   2   3.2338412746323462E+00   3.0686312097551607E+00   9.3189336736890027E+00
   50   1   2.6141510308059202E+00   3.3330413141228510E+00   1.0040803958130041E+01
   51   1   3.0703312105882126E+00   2.0902008240460970E+00   9.2463836450788452E+00
   52   2   3.8746415276329014E+00   9.9168039096929697E+00   6.9243227274482932E-01
   53   1   3.7400314745755874E+00   1.0427604110973862E+01   1.2554504949268711E+01
   54   1   3.2792012929504457E+00   9.1139535930960260E+00   6.7843326752347344E-01
   55   2   8.5834133838041691E+00   1.1219604423094435E+01   9.4029537066684608E+00
   56   1   9.3453936840217775E+00   1.1510204537824457E+01   9.9161639090182643E+00
   57   1   8.7036234312058056E+00   1.1656404595179138E+01   8.5221733596592273E+00
   58   2   1.0235504034831019E+01   5.2019820382303010E-02   3.9757715674217016E+00
   59   1   1.0034203955736299E+01   9.8224938724306232E-01   4.0639516021408575E+00
   60   1   9.7634838491979057E+00   1.2372304877510249E+01   4.7333118660674574E+00
   61   2   7.1969728374600441E+00   8.2265832430255816E+00   1.1820804661732527E+00
   62   1   7.6203330043719513E+00   8.5976133895797364E+00   3.7409814773134659E-01
   63   1   7.4771629474499344E+00   7.2887728734488366E+00   1.1868604678058787E+00
   64   2   5.9801623573123566E+00   1.2302904850319177E+01   3.5439713971023337E+00
   65   1   5.0304419831008911E+00   1.2119604777897168E+01   3.3098413047463393E+00
   66   1   6.5038525639634477E+00   1.1971604719504793E+01   2.7289910757379587E+00
   67   2   1.1585404567359657E+01   1.0858204280425040E+01   7.3898029130329927E+00
   68   1   1.1359204478055371E+01   1.0036503956738857E+01   7.8843731080353789E+00
   69   1   1.0765504244181990E+01   1.1358604477885864E+01   7.2647628641609971E+00
   70   2   5.8274222972633751E+00   8.5413233673623967E+00   7.4979429558958222E+00
   71   1   5.9218223343394785E+00   7.5630829816717311E+00   7.4003829175389244E+00
   72   1   5.7868222813836567E+00   8.8691534964203438E+00   8.4075633147216084E+00
   73   2   6.6266826121758182E+00   2.1011108282219144E+00   4.1016016170107799E+00
   74   1   7.0322427722951213E+00   2.2783808983053735E+00   3.2516912817918597E+00
   75   1   6.2628024688763571E+00   1.1873904678850522E+00   3.8576215206373137E+00
   76   2   1.7949307077498036E+00   4.2008816559241513E+00   1.1533804546961187E+01
   77   1   8.9001235089444786E-01   5.1651020359959370E+00   1.2257704832434341E+01
   78   1   2.6644510501315559E+00   3.9767415677662936E+00   1.1877204682428689E+01
   79   2   3.8907515339833409E-01   2.1761908578290492E+00   1.0825304267602611E+01
   80   1   1.1261504437401100E+00   2.8652011294236810E+00   1.0958604320254558E+01
   81   1   8.4668933356457921E-01   1.5093505950377164E+00   1.0275504051070408E+01
   82   2   1.1261104439228411E+01   6.5228625714859518E+00   2.6551710466984577E+00
   83   1   1.1487304528532697E+01   6.9548427419620076E+00   3.4989913793502079E+00
   84   1   1.1218304422550778E+01   7.2688828653954953E+00   2.0162307949642191E+00
   85   2   8.8342234825657986E+00   6.2369524585748017E+00   1.2289104844833007E+01
   86   1   9.7298938358630380E+00   6.0263723755178047E+00   1.1981204723275244E+01
   87   1   8.3258932820532650E+00   5.5059121707670178E+00   1.1883904685027076E+01
   88   2   9.2179536339425798E+00   1.2397504887275391E+01   6.5896525977280014E+00
   89   1   8.7194234376097821E+00   5.1524120299766696E-01   6.9206527284576334E+00
   90   1   8.4753333411699625E+00   1.1771704640629194E+01   6.3958425214195733E+00
   91   2   6.1663524310447162E+00   4.9807419634155830E+00   4.5965718123025621E+00
   92   1   5.9739423549554092E+00   4.0337815901955159E+00   4.3846717284493106E+00
   93   1   6.7776826719449028E+00   5.2626820746054346E+00   3.8747015273323453E+00
   94   2   1.0112703986732958E+01   1.5221406002032734E+00   9.1696936149815915E+00
   95   1   1.0474604129367215E+01   1.1882104681872674E+00   1.0015603948364902E+01
   96   1   1.0838604272594742E+01   2.0124107932852962E+00   8.6800934221594073E+00
   97   2   8.0154531596368113E+00   5.6205322155663477E+00   2.3566009289407037E+00
   98   1   8.8877835039060500E+00   5.6965922459089615E+00   2.7550710860339356E+00
   99   1   8.2408032485245695E+00   5.3217220979524624E+00   1.4521105721992069E+00
  100   2   1.1090804372242959E+01   6.6878826363447388E+00   5.6886922424423858E+00
  101   1   1.0429304111277736E+01   7.3952929154306570E+00   5.5605521919890393E+00
  102   1   1.0571504167325985E+01   5.8592923100417691E+00   5.8454023042126666E+00
  103   2   1.1939604706936622E+01   2.3343209200710504E+00   1.0528104149420490E+00
  104   1   1.2282004841945222E+01   2.1589708509533523E+00   1.4138805584707329E-01
  105   1   1.1041104352557651E+01   1.8708207372682648E+00   9.9004939050499519E-01
  106   2   2.2456508852487431E+00   4.9131919370999393E+00   2.1567008500651048E+00
  107   1   2.6319910375745454E+00   4.3392217108466324E+00   2.8871511380942709E+00
  108   1   3.0139111880519183E+00   5.3544921109851149E+00   1.7356106840414451E+00
  109   2   9.5552137670051795E+00   8.7962834674728345E+00   4.5699718017891238E+00
  110   1   9.3790336971943784E+00   8.6411334063549425E+00   3.6169614259779084E+00
  111   1   8.8276134803103439E+00   9.4207837141045516E+00   4.8257119022257555E+00
  112   2   6.3503625037025850E+00   4.6152318193734017E+00   1.1874604681341379E+01
  113   1   5.7215322555653714E+00   5.3680921160619981E+00   1.1977804722138316E+01
  114   1   6.0712623934561760E+00   4.1870716505762697E+00   1.1025004346068924E+01
  115   2   1.0215004026746460E+01   3.3357313150239172E+00   4.0593416002740303E+00
  116   1   9.7054338259188935E+00   3.8514915180941220E+00   4.7233218618693211E+00
  117   1   1.1064704362223560E+01   3.0988212214239246E+00   4.4400717502741029E+00
  118   2   1.4666705782881486E+00   1.0698504217668942E+01   1.2018804738307432E+01
  119   1   2.0519508090066685E+00   1.1458404517016701E+01   1.1866504677994694E+01
  120   1   7.4986329574666144E-01   1.0823804267178845E+01   1.1373204483421652E+01
  121   2   3.5545214014939543E+00   1.0852504278285556E+01   3.0008211828016083E+00
  122   1   4.0053515790592487E+00   1.0645404196846709E+01   2.1607508517384479E+00
  123   1   3.8357615123096562E+00   1.0202804022417878E+01   3.6790514505393763E+00
  124   2   1.1220504423348693E+01   7.7894630706035253E+00   1.1465404519699840E+01
  125   1   1.1400804494393993E+01   7.7984930743187810E+00   1.0514004144907922E+01
  126   1   1.0278404052242474E+01   8.1076631963058876E+00   1.1427304504702787E+01
  127   2   5.5482521874558106E+00   1.2559504951034047E+01   7.9684731414960588E+00
  128   1   5.3288521009545562E+00   1.2051604750925218E+01   7.1274428099500176E+00
  129   1   5.9808923578008155E+00   6.8387926936541821E-01   7.5616929807851436E+00
  130   2   1.1124604385319648E+01   1.1486804528567832E+01   1.1162304400556479E+01
  131   1   1.0770004245982461E+01   1.0768204244944767E+01   1.1733604625632141E+01
  132   1   1.0940804312932778E+01   1.2271404837715870E+01   1.1699404612266058E+01
  133   2   3.1130512273138020E+00   4.3439317123889261E+00   6.8960927188380214E+00
  134   1   2.3655209325896056E+00   4.9765319618381527E+00   6.9977827588203061E+00
  135   1   3.1456212399371681E+00   3.9387715525590186E+00   7.7853530692307382E+00
  136   2   1.1874104680847338E+01   3.2596212848435693E+00   7.6669630225902186E+00
  137   1   1.2438804903529258E+01   3.6072614220028139E+00   8.4155033176350305E+00
  138   1   1.2445204906042893E+01   2.8582911265542958E+00   6.9434827371298820E+00
  139   2   9.2029036277504854E+00   4.5827618064255029E+00   6.4700725506101815E+00
  140   1   9.6830638172354835E+00   4.0487615962972763E+00   7.1326528119863513E+00
  141   1   8.5951033883061800E+00   5.1955620481643203E+00   6.9880627545926117E+00
  142   2   3.4651813648242769E-01   4.9103819357416301E+00   9.3852636999422128E+00
  143   1   9.6762038120871230E-01   5.5601921922048421E+00   9.0241835576101703E+00
  144   1   8.5580633718799437E-01   4.5628517986487394E+00   1.0156504003869497E+01
  145   2   1.1466404520158743E+01   7.9473831331037061E+00   8.4270733222089742E+00
  146   1   1.2372004877425496E+01   7.5530129775215507E+00   8.3608032961843879E+00
  147   1   1.1071804364582167E+01   7.5417629732849578E+00   7.6388430114004153E+00
  148   2   7.0335827728147988E+00   1.1214904421413852E+01   1.3961205505957970E+00
  149   1   6.6264026123436652E+00   1.1658104596012189E+01   5.5000421699200885E-01
  150   1   6.7432526585843977E+00   1.0292004057319357E+01   1.4738405812662647E+00
  151   2   1.4787205831035339E+00   1.1821904660279364E+01   6.6265126124100195E+00
  152   1   1.7278006809178010E+00   1.1956504713474967E+01   7.5506429764286604E+00
  153   1   6.8857327123480905E-01   1.1203304416725596E+01   6.7736826701092925E+00
  154   2   6.8317126931357066E+00   2.7370610789703340E+00   1.1975504718489873E+00
  155   1   6.2877924788996760E+00   2.0383908033766294E+00   7.6161729999863681E-01
  156   1   6.7111626456732951E+00   3.4867513745164240E+00   5.6557422287238690E-01
  157   2   3.4892413750082030E-01   2.3304009187166619E+00   5.3346021029317745E+00
  158   1   1.0456704120782436E+00   3.0082811860027663E+00   5.0686819982786080E+00
  159   1   6.7263226503442108E-01   1.4213105604992260E+00   5.4908821648275241E+00
  160   2   8.8265434797611082E+00   8.9347735224376930E+00   1.0957104319301616E+01
  161   1   8.4094033152061485E+00   8.0656931797921807E+00   1.0670804206491956E+01
  162   1   8.8002434693324219E+00   9.3586236894527524E+00   1.0071103970394336E+01
  163   2   3.4647113660320792E+00   8.7305534419183086E+00   1.0314604065997186E+01
  164   1   3.9440815547999954E+00   9.6005837846558126E+00   1.0187104016218543E+01
  165   1   2.6649310503729962E+00   8.9782635396277648E+00   1.0779804249633022E+01
  166   2   4.0093215828972562E-01   6.7871526870382975E-02   2.0049207904990052E+00
  167   1   1.2417904895684480E+01   1.2661104991202576E+01   2.7296310758834865E+00
  168   1   1.2640404983237907E+01   7.3600129027119809E-01   1.4247605614738856E+00
  169   2   1.0312304065523806E+01   4.6123118184779166E+00   1.0374004089657587E+01
  170   1   1.0224404030636803E+01   3.6363814336515197E+00   1.0201604021549686E+01
  171   1   1.1206904418271808E+01   4.7817718849085535E+00   1.0024403952085738E+01
  172   2   7.3999429172735054E+00   1.9850707824216862E+00   6.7294026527313164E+00
  173   1   7.0899227948698726E+00   2.7466710826024960E+00   7.2241028480526568E+00
  174   1   7.1541828201149444E+00   2.0188507957749526E+00   5.7810322789012387E+00
  175   2   3.2951712991202204E+00   3.2540212829087283E+00   4.3432917122433983E+00
  176   1   4.0980716155548986E+00   2.7500310842925781E+00   4.0761116070225976E+00
  177   1   3.4506613602988887E+00   3.5718514079068284E+00   5.2604120737171876E+00
  178   2   7.3321528905725533E+00   1.0376504090540255E+01   5.7985022860239557E+00
  179   1   6.6708526300166175E+00   1.0928504308399550E+01   5.3418921058379567E+00
  180   1   6.8371326954430378E+00   9.8255238733924646E+00   6.4552825450559972E+00
  181   2   1.1836904666633725E+01   9.4177537126135338E+00   1.2573804959130965E+00
  182   1   1.0958204319965160E+01   9.6922738211074275E+00   1.5356306052138025E+00
  183   1   1.1738504627722012E+01   8.7732734586438994E+00   5.0451719878972767E-01
  184   2   9.7917638602917965E+00   1.1153604397040288E+01   1.8691907370547229E+00
  185   1   8.8496934887707095E+00   1.1117304382551755E+01   1.7157006762646825E+00
  186   1   9.9806339345343353E+00   1.1721404620774379E+01   2.6686910518232976E+00
  187   2   2.7111510689693334E+00   4.9528919548421074E-01   9.4223737143420738E+00
  188   1   3.2141312672648699E+00   1.2638704982404857E+01   8.8036434704693498E+00
  189   2   2.4076509505949317E-01   5.7681322736693277E+00   1.2622604982795432E-01
  190   1   1.2335004862562814E+01   6.2883124791171383E+00   1.2210004813666838E+01
  191   3   7.9648794900763491E+00   6.2809060360579725E+00   5.3955134868630790E+00
  192   3   1.1514904536859152E+00   1.0615104184582412E+01   1.8423207260416645E+00

